Variables = x, y, u, v, p

Zone, N=15480, E=10750, F=FEBlock, ET=QUADRILATERAL
3 3 3 3 3 3 2.9454 2.9454 2.9454 2.9454 2.9454 2.9454 2.8908 2.8908 2.8908 2.8908 2.8908 2.8908 2.8362 2.8362 2.8362 2.8362 2.8362 2.8362 2.7816 2.7816 2.7816 2.7816 2.7816 2.7816 2.727 2.727 2.727 2.727 2.727 2.727 -0.5 -0.43032 -0.36064 -0.29096 -0.22128 -0.1516 -0.5 -0.444256 -0.388512 -0.332768 -0.277024 -0.22128 -0.5 -0.458192 -0.416384 -0.374576 -0.332768 -0.29096 -0.5 -0.472128 -0.444256 -0.416384 -0.388512 -0.36064 -0.5 -0.486064 -0.472128 -0.458192 -0.444256 -0.43032 -0.5 -0.5 -0.5 -0.5 -0.5 -0.5 3 3 3 3 3 3 2.9432 2.9432 2.9432 2.9432 2.9432 2.9432 2.8864 2.8864 2.8864 2.8864 2.8864 2.8864 2.8296 2.8296 2.8296 2.8296 2.8296 2.8296 2.7728 2.7728 2.7728 2.7728 2.7728 2.7728 2.716 2.716 2.716 2.716 2.716 2.716 -0.5 -0.4248 -0.3496 -0.2744 -0.1992 -0.124 -0.5 -0.43984 -0.37968 -0.31952 -0.25936 -0.1992 -0.5 -0.45488 -0.40976 -0.36464 -0.31952 -0.2744 -0.5 -0.46992 -0.43984 -0.40976 -0.37968 -0.3496 -0.5 -0.48496 -0.46992 -0.45488 -0.43984 -0.4248 -0.5 -0.5 -0.5 -0.5 -0.5 -0.5 0.4957 0.54402 0.59234 0.64066 0.68898 0.7373 0.48864 0.527296 0.565952 0.604608 0.643264 0.68192 0.48158 0.510572 0.539564 0.568556 0.597548 0.62654 0.47452 0.493848 0.513176 0.532504 0.551832 0.57116 0.46746 0.477124 0.486788 0.496452 0.506116 0.51578 0.4604 0.4604 0.4604 0.4604 0.4604 0.4604 0.2135 0.1708 0.1281 0.0854 0.0427 0 0.1708 0.13664 0.10248 0.06832 0.03416 0 0.1281 0.10248 0.07686 0.05124 0.02562 0 0.0854 0.06832 0.05124 0.03416 0.01708 0 0.0427 0.03416 0.02562 0.01708 0.00854 0 0 0 0 0 0 0 0.4957 0.48864 0.48158 0.47452 0.46746 0.4604 0.43906 0.433412 0.427764 0.422116 0.416468 0.41082 0.38242 0.378184 0.373948 0.369712 0.365476 0.36124 0.32578 0.322956 0.320132 0.317308 0.314484 0.31166 0.26914 0.267728 0.266316 0.264904 0.263492 0.26208 0.2125 0.2125 0.2125 0.2125 0.2125 0.2125 2.046 2.0186 1.9912 1.9638 1.9364 1.909 2.0732 2.05128 2.02936 2.00744 1.98552 1.9636 2.1004 2.08396 2.06752 2.05108 2.03464 2.0182 2.1276 2.11664 2.10568 2.09472 2.08376 2.0728 2.1548 2.14932 2.14384 2.13836 2.13288 2.1274 2.182 2.182 2.182 2.182 2.182 2.182 0.2727 0.32726 0.38182 0.43638 0.49094 0.5455 0.29212 0.335768 0.379416 0.423064 0.466712 0.51036 0.31154 0.344276 0.377012 0.409748 0.442484 0.47522 0.33096 0.352784 0.374608 0.396432 0.418256 0.44008 0.35038 0.361292 0.372204 0.383116 0.394028 0.40494 0.3698 0.3698 0.3698 0.3698 0.3698 0.3698 0.4225 0.4268 0.4311 0.4354 0.4397 0.444 0.37 0.37344 0.37688 0.38032 0.38376 0.3872 0.3175 0.32008 0.32266 0.32524 0.32782 0.3304 0.265 0.26672 0.26844 0.27016 0.27188 0.2736 0.2125 0.21336 0.21422 0.21508 0.21594 0.2168 0.16 0.16 0.16 0.16 0.16 0.16 0.728 0.6712 0.6144 0.5576 0.5008 0.444 0.6669 0.62146 0.57602 0.53058 0.48514 0.4397 0.6058 0.57172 0.53764 0.50356 0.46948 0.4354 0.5447 0.52198 0.49926 0.47654 0.45382 0.4311 0.4836 0.47224 0.46088 0.44952 0.43816 0.4268 0.4225 0.4225 0.4225 0.4225 0.4225 0.4225 0.8182 0.77726 0.73632 0.69538 0.65444 0.6135 0.76366 0.730908 0.698156 0.665404 0.632652 0.5999 0.70912 0.684556 0.659992 0.635428 0.610864 0.5863 0.65458 0.638204 0.621828 0.605452 0.589076 0.5727 0.60004 0.591852 0.583664 0.575476 0.567288 0.5591 0.5455 0.5455 0.5455 0.5455 0.5455 0.5455 0.5455 0.5591 0.5727 0.5863 0.5999 0.6135 0.51036 0.52124 0.53212 0.543 0.55388 0.56476 0.47522 0.48338 0.49154 0.4997 0.50786 0.51602 0.44008 0.44552 0.45096 0.4564 0.46184 0.46728 0.40494 0.40766 0.41038 0.4131 0.41582 0.41854 0.3698 0.3698 0.3698 0.3698 0.3698 0.3698 0.5498 0.53898 0.52816 0.51734 0.50652 0.4957 0.52202 0.513364 0.504708 0.496052 0.487396 0.47874 0.49424 0.487748 0.481256 0.474764 0.468272 0.46178 0.46646 0.462132 0.457804 0.453476 0.449148 0.44482 0.43868 0.436516 0.434352 0.432188 0.430024 0.42786 0.4109 0.4109 0.4109 0.4109 0.4109 0.4109 0.9609 0.91618 0.87146 0.82674 0.78202 0.7373 0.9676 0.931824 0.896048 0.860272 0.824496 0.78872 0.9743 0.947468 0.920636 0.893804 0.866972 0.84014 0.981 0.963112 0.945224 0.927336 0.909448 0.89156 0.9877 0.978756 0.969812 0.960868 0.951924 0.94298 0.9944 0.9944 0.9944 0.9944 0.9944 0.9944 0.7373 0.68898 0.64066 0.59234 0.54402 0.4957 0.74028 0.701624 0.662968 0.624312 0.585656 0.547 0.74326 0.714268 0.685276 0.656284 0.627292 0.5983 0.74624 0.726912 0.707584 0.688256 0.668928 0.6496 0.74922 0.739556 0.729892 0.720228 0.710564 0.7009 0.7522 0.7522 0.7522 0.7522 0.7522 0.7522 0.4272 0.45172 0.47624 0.50076 0.52528 0.5498 0.42394 0.443556 0.463172 0.482788 0.502404 0.52202 0.42068 0.435392 0.450104 0.464816 0.479528 0.49424 0.41742 0.427228 0.437036 0.446844 0.456652 0.46646 0.41416 0.419064 0.423968 0.428872 0.433776 0.43868 0.4109 0.4109 0.4109 0.4109 0.4109 0.4109 0.8514 0.80382 0.75624 0.70866 0.66108 0.6135 0.84476 0.806696 0.768632 0.730568 0.692504 0.65444 0.83812 0.809572 0.781024 0.752476 0.723928 0.69538 0.83148 0.812448 0.793416 0.774384 0.755352 0.73632 0.82484 0.815324 0.805808 0.796292 0.786776 0.77726 0.8182 0.8182 0.8182 0.8182 0.8182 0.8182 -0.093 -0.0319 0.0292 0.0903 0.1514 0.2125 -0.062494 -0.013614 0.035266 0.084146 0.133026 0.181906 -0.031988 0.004672 0.041332 0.077992 0.114652 0.151312 -0.001482 0.022958 0.047398 0.071838 0.096278 0.120718 0.029024 0.041244 0.053464 0.065684 0.077904 0.090124 0.05953 0.05953 0.05953 0.05953 0.05953 0.05953 0.4109 0.42786 0.44482 0.46178 0.47874 0.4957 0.38818 0.401748 0.415316 0.428884 0.442452 0.45602 0.36546 0.375636 0.385812 0.395988 0.406164 0.41634 0.34274 0.349524 0.356308 0.363092 0.369876 0.37666 0.32002 0.323412 0.326804 0.330196 0.333588 0.33698 0.2973 0.2973 0.2973 0.2973 0.2973 0.2973 0.2973 0.33698 0.37666 0.41634 0.45602 0.4957 0.28034 0.312084 0.343828 0.375572 0.407316 0.43906 0.26338 0.287188 0.310996 0.334804 0.358612 0.38242 0.24642 0.262292 0.278164 0.294036 0.309908 0.32578 0.22946 0.237396 0.245332 0.253268 0.261204 0.26914 0.2125 0.2125 0.2125 0.2125 0.2125 0.2125 0.7753 0.71232 0.64934 0.58636 0.52338 0.4604 0.7677 0.717316 0.666932 0.616548 0.566164 0.51578 0.7601 0.722312 0.684524 0.646736 0.608948 0.57116 0.7525 0.727308 0.702116 0.676924 0.651732 0.62654 0.7449 0.732304 0.719708 0.707112 0.694516 0.68192 0.7373 0.7373 0.7373 0.7373 0.7373 0.7373 0.4225 0.43008 0.43766 0.44524 0.45282 0.4604 0.49306 0.499124 0.505188 0.511252 0.517316 0.52338 0.56362 0.568168 0.572716 0.577264 0.581812 0.58636 0.63418 0.637212 0.640244 0.643276 0.646308 0.64934 0.70474 0.706256 0.707772 0.709288 0.710804 0.71232 0.7753 0.7753 0.7753 0.7753 0.7753 0.7753 -0.1733 -0.15724 -0.14118 -0.12512 -0.10906 -0.093 -0.126734 -0.113886 -0.101038 -0.08819 -0.075342 -0.062494 -0.080168 -0.070532 -0.060896 -0.05126 -0.041624 -0.031988 -0.033602 -0.027178 -0.020754 -0.01433 -0.007906 -0.001482 0.012964 0.016176 0.019388 0.0226 0.025812 0.029024 0.05953 0.05953 0.05953 0.05953 0.05953 0.05953 0.6155 0.60236 0.58922 0.57608 0.56294 0.5498 0.62572 0.615208 0.604696 0.594184 0.583672 0.57316 0.63594 0.628056 0.620172 0.612288 0.604404 0.59652 0.64616 0.640904 0.635648 0.630392 0.625136 0.61988 0.65638 0.653752 0.651124 0.648496 0.645868 0.64324 0.6666 0.6666 0.6666 0.6666 0.6666 0.6666 0.6155 0.64284 0.67018 0.69752 0.72486 0.7522 0.59154 0.613412 0.635284 0.657156 0.679028 0.7009 0.56758 0.583984 0.600388 0.616792 0.633196 0.6496 0.54362 0.554556 0.565492 0.576428 0.587364 0.5983 0.51966 0.525128 0.530596 0.536064 0.541532 0.547 0.4957 0.4957 0.4957 0.4957 0.4957 0.4957 0.4957 0.50652 0.51734 0.52816 0.53898 0.5498 0.51966 0.528316 0.536972 0.545628 0.554284 0.56294 0.54362 0.550112 0.556604 0.563096 0.569588 0.57608 0.56758 0.571908 0.576236 0.580564 0.584892 0.58922 0.59154 0.593704 0.595868 0.598032 0.600196 0.60236 0.6155 0.6155 0.6155 0.6155 0.6155 0.6155 0.6666 0.68372 0.70084 0.71796 0.73508 0.7522 0.65638 0.670076 0.683772 0.697468 0.711164 0.72486 0.64616 0.656432 0.666704 0.676976 0.687248 0.69752 0.63594 0.642788 0.649636 0.656484 0.663332 0.67018 0.62572 0.629144 0.632568 0.635992 
0.639416 0.64284 0.6155 0.6155 0.6155 0.6155 0.6155 0.6155 0.0507 0.02196 -0.00678 -0.03552 -0.06426 -0.093 0.01024 -0.012752 -0.035744 -0.058736 -0.081728 -0.10472 -0.03022 -0.047464 -0.064708 -0.081952 -0.099196 -0.11644 -0.07068 -0.082176 -0.093672 -0.105168 -0.116664 -0.12816 -0.11114 -0.116888 -0.122636 -0.128384 -0.134132 -0.13988 -0.1516 -0.1516 -0.1516 -0.1516 -0.1516 -0.1516 2.148 2.0912 2.0344 1.9776 1.9208 1.864 2.1182 2.07276 2.02732 1.98188 1.93644 1.891 2.0884 2.05432 2.02024 1.98616 1.95208 1.918 2.0586 2.03588 2.01316 1.99044 1.96772 1.945 2.0288 2.01744 2.00608 1.99472 1.98336 1.972 1.999 1.999 1.999 1.999 1.999 1.999 0.9802 1.02696 1.07372 1.12048 1.16724 1.214 1.00476 1.04217 1.07958 1.11698 1.15439 1.1918 1.02932 1.05738 1.08543 1.11349 1.14154 1.1696 1.05388 1.07258 1.09129 1.10999 1.1287 1.1474 1.07844 1.08779 1.09714 1.1065 1.11585 1.1252 1.103 1.103 1.103 1.103 1.103 1.103 0.7522 0.73508 0.71796 0.70084 0.68372 0.6666 0.75556 0.741864 0.728168 0.714472 0.700776 0.68708 0.75892 0.748648 0.738376 0.728104 0.717832 0.70756 0.76228 0.755432 0.748584 0.741736 0.734888 0.72804 0.76564 0.762216 0.758792 0.755368 0.751944 0.74852 0.769 0.769 0.769 0.769 0.769 0.769 1.186 1.1916 1.1972 1.2028 1.2084 1.214 1.14484 1.14932 1.1538 1.15828 1.16276 1.16724 1.10368 1.10704 1.1104 1.11376 1.11712 1.12048 1.06252 1.06476 1.067 1.06924 1.07148 1.07372 1.02136 1.02248 1.0236 1.02472 1.02584 1.02696 0.9802 0.9802 0.9802 0.9802 0.9802 0.9802 0.0507 0.01024 -0.03022 -0.07068 -0.11114 -0.1516 0.04056 0.008192 -0.024176 -0.056544 -0.088912 -0.12128 0.03042 0.006144 -0.018132 -0.042408 -0.066684 -0.09096 0.02028 0.004096 -0.012088 -0.028272 -0.044456 -0.06064 0.01014 0.002048 -0.006044 -0.014136 -0.022228 -0.03032 0 0 0 0 0 0 0.4604 0.45282 0.44524 0.43766 0.43008 0.4225 0.41924 0.413176 0.407112 0.401048 0.394984 0.38892 0.37808 0.373532 0.368984 0.364436 0.359888 0.35534 0.33692 0.333888 0.330856 0.327824 0.324792 0.32176 0.29576 0.294244 0.292728 0.291212 0.289696 0.28818 0.2546 0.2546 0.2546 0.2546 0.2546 0.2546 0.7522 0.80064 0.84908 0.89752 0.94596 0.9944 0.74922 0.787972 0.826724 0.865476 0.904228 0.94298 0.74624 0.775304 0.804368 0.833432 0.862496 0.89156 0.74326 0.762636 0.782012 0.801388 0.820764 0.84014 0.74028 0.749968 0.759656 0.769344 0.779032 0.78872 0.7373 0.7373 0.7373 0.7373 0.7373 0.7373 0.8865 0.90808 0.92966 0.95124 0.97282 0.9944 0.85964 0.876904 0.894168 0.911432 0.928696 0.94596 0.83278 0.845728 0.858676 0.871624 0.884572 0.89752 0.80592 0.814552 0.823184 0.831816 0.840448 0.84908 0.77906 0.783376 0.787692 0.792008 0.796324 0.80064 0.7522 0.7522 0.7522 0.7522 0.7522 0.7522 0.8865 0.85964 0.83278 0.80592 0.77906 0.7522 0.863 0.841512 0.820024 0.798536 0.777048 0.75556 0.8395 0.823384 0.807268 0.791152 0.775036 0.75892 0.816 0.805256 0.794512 0.783768 0.773024 0.76228 0.7925 0.787128 0.781756 0.776384 0.771012 0.76564 0.769 0.769 0.769 0.769 0.769 0.769 1.364 1.4184 1.4728 1.5272 1.5816 1.636 1.3912 1.43472 1.47824 1.52176 1.56528 1.6088 1.4184 1.45104 1.48368 1.51632 1.54896 1.5816 1.4456 1.46736 1.48912 1.51088 1.53264 1.5544 1.4728 1.48368 1.49456 1.50544 1.51632 1.5272 1.5 1.5 1.5 1.5 1.5 1.5 1.186 1.167 1.148 1.129 1.11 1.091 1.2216 1.2064 1.1912 1.176 1.1608 1.1456 1.2572 1.2458 1.2344 1.223 1.2116 1.2002 1.2928 1.2852 1.2776 1.27 1.2624 1.2548 1.3284 1.3246 1.3208 1.317 1.3132 1.3094 1.364 1.364 1.364 1.364 1.364 1.364 1.5 1.4372 1.3744 1.3116 1.2488 1.186 1.4728 1.42256 1.37232 1.32208 1.27184 1.2216 1.4456 1.40792 1.37024 1.33256 1.29488 1.2572 1.4184 1.39328 1.36816 1.34304 1.31792 1.2928 1.3912 1.37864 1.36608 1.35352 1.34096 1.3284 1.364 1.364 1.364 1.364 1.364 1.364 1.296 1.2392 1.1824 1.1256 1.0688 1.012 1.2596 1.21416 1.16872 1.12328 1.07784 1.0324 1.2232 1.18912 1.15504 1.12096 1.08688 1.0528 1.1868 1.16408 1.14136 1.11864 1.09592 1.0732 1.1504 1.13904 1.12768 1.11632 1.10496 1.0936 1.114 1.114 1.114 1.114 1.114 1.114 1.186 1.14484 1.10368 1.06252 1.02136 0.9802 1.11908 1.08615 1.05322 1.0203 0.987368 0.95444 1.05216 1.02746 1.00277 0.978072 0.953376 0.92868 0.98524 0.968776 0.952312 0.935848 0.919384 0.90292 0.91832 0.910088 0.901856 0.893624 0.885392 0.87716 0.8514 0.8514 0.8514 0.8514 0.8514 0.8514 0 0 0 0 0 0 0.019938 0.019938 0.019938 0.019938 0.019938 0.019938 0.039876 0.039876 0.039876 0.039876 0.039876 0.039876 0.059814 0.059814 0.059814 0.059814 0.059814 0.059814 0.079752 0.079752 0.079752 0.079752 0.079752 0.079752 0.09969 0.09969 0.09969 0.09969 0.09969 0.09969 0.09969 0.113192 0.126694 0.140196 0.153698 0.1672 0.079752 0.0905536 0.101355 0.112157 0.122958 0.13376 0.059814 0.0679152 0.0760164 0.0841176 0.0922188 0.10032 0.039876 0.0452768 0.0506776 0.0560784 0.0614792 0.06688 0.019938 0.0226384 0.0253388 0.0280392 0.0307396 0.03344 0 0 0 0 0 0 2.009 1.929 1.849 1.769 1.689 1.609 1.9918 1.9278 1.8638 1.7998 1.7358 1.6718 1.9746 1.9266 1.8786 1.8306 1.7826 1.7346 1.9574 1.9254 1.8934 1.8614 1.8294 1.7974 1.9402 1.9242 1.9082 1.8922 1.8762 1.8602 1.923 1.923 1.923 1.923 1.923 1.923 0.2546 0.24618 0.23776 0.22934 0.22092 0.2125 0.29576 0.289024 0.282288 0.275552 0.268816 0.26208 0.33692 0.331868 0.326816 0.321764 0.316712 0.31166 0.37808 0.374712 0.371344 0.367976 0.364608 0.36124 0.41924 0.417556 0.415872 0.414188 0.412504 0.41082 0.4604 0.4604 0.4604 0.4604 0.4604 0.4604 0.05953 0.090124 0.120718 0.151312 0.181906 0.2125 0.098544 0.123019 0.147494 0.17197 0.196445 0.22092 0.137558 0.155914 0.174271 0.192627 0.210984 0.22934 0.176572 0.18881 0.201047 0.213285 0.225522 0.23776 0.215586 0.221705 0.227824 0.233942 0.240061 0.24618 0.2546 0.2546 0.2546 0.2546 0.2546 0.2546 0.4773 0.52228 0.56726 0.61224 0.65722 0.7022 0.4777 0.513684 0.549668 0.585652 0.621636 0.65762 0.4781 0.505088 0.532076 0.559064 0.586052 0.61304 0.4785 0.496492 0.514484 0.532476 0.550468 0.56846 0.4789 0.487896 0.496892 0.505888 0.514884 0.52388 0.4793 0.4793 0.4793 0.4793 0.4793 0.4793 0.6014 0.57698 0.55256 0.52814 0.50372 0.4793 0.62156 0.602024 0.582488 0.562952 0.543416 0.52388 0.64172 0.627068 0.612416 0.597764 0.583112 0.56846 0.66188 0.652112 0.642344 0.632576 0.622808 0.61304 0.68204 0.677156 0.672272 0.667388 0.662504 0.65762 0.7022 0.7022 0.7022 0.7022 0.7022 0.7022 0.6014 0.62156 0.64172 0.66188 0.68204 0.7022 0.62782 0.643948 0.660076 0.676204 0.692332 0.70846 0.65424 0.666336 0.678432 0.690528 0.702624 0.71472 0.68066 0.688724 0.696788 0.704852 0.712916 0.72098 0.70708 0.711112 0.715144 0.719176 0.723208 0.72724 0.7335 0.7335 0.7335 0.7335 0.7335 0.7335 -0.5 -0.43466 -0.36932 -0.30398 -0.23864 -0.1733 -0.4248 -0.372528 -0.320256 -0.267984 -0.215712 -0.16344 -0.3496 -0.310396 -0.271192 -0.231988 -0.192784 -0.15358 -0.2744 -0.248264 -0.222128 -0.195992 -0.169856 -0.14372 -0.1992 -0.186132 -0.173064 -0.159996 -0.146928 -0.13386 -0.124 -0.124 -0.124 -0.124 -0.124 -0.124 -0.5 -0.43466 -0.36932 -0.30398 -0.23864 -0.1733 -0.5 -0.447728 -0.395456 -0.343184 -0.290912 -0.23864 -0.5 -0.460796 -0.421592 -0.382388 -0.343184 -0.30398 -0.5 -0.473864 -0.447728 -0.421592 -0.395456 -0.36932 -0.5 -0.486932 -0.473864 -0.460796 -0.447728 -0.43466 -0.5 -0.5 -0.5 -0.5 -0.5 -0.5 0 0.03344 0.06688 0.10032 0.13376 0.1672 0.01014 0.036892 0.063644 0.090396 0.117148 0.1439 0.02028 0.040344 0.060408 0.080472 0.100536 0.1206 0.03042 0.043796 0.057172 0.070548 0.083924 0.0973 0.04056 0.047248 0.053936 0.060624 0.067312 0.074 0.0507 0.0507 0.0507 0.0507 0.0507 0.0507 0.0507 0.08306 0.11542 0.14778 0.18014 0.2125 0.02196 0.047848 0.073736 0.099624 0.125512 0.1514 -0.00678 0.012636 0.032052 0.051468 0.070884 0.0903 -0.03552 -0.022576 -0.009632 0.003312 0.016256 0.0292 -0.06426 -0.057788 -0.051316 -0.044844 -0.038372 -0.0319 -0.093 -0.093 -0.093 -0.093 -0.093 -0.093 -0.1516 -0.13988 -0.12816 -0.11644 -0.10472 -0.093 -0.22128 -0.211904 -0.202528 -0.193152 -0.183776 -0.1744 -0.29096 -0.283928 -0.276896 -0.269864 -0.262832 -0.2558 -0.36064 -0.355952 
-0.351264 -0.346576 -0.341888 -0.3372 -0.43032 -0.427976 -0.425632 -0.423288 -0.420944 -0.4186 -0.5 -0.5 -0.5 -0.5 -0.5 -0.5 0.2135 0.24476 0.27602 0.30728 0.33854 0.3698 0.26626 0.291268 0.316276 0.341284 0.366292 0.3913 0.31902 0.337776 0.356532 0.375288 0.394044 0.4128 0.37178 0.384284 0.396788 0.409292 0.421796 0.4343 0.42454 0.430792 0.437044 0.443296 0.449548 0.4558 0.4773 0.4773 0.4773 0.4773 0.4773 0.4773 0.4773 0.4558 0.4343 0.4128 0.3913 0.3698 0.50454 0.48734 0.47014 0.45294 0.43574 0.41854 0.53178 0.51888 0.50598 0.49308 0.48018 0.46728 0.55902 0.55042 0.54182 0.53322 0.52462 0.51602 0.58626 0.58196 0.57766 0.57336 0.56906 0.56476 0.6135 0.6135 0.6135 0.6135 0.6135 0.6135 0.728 0.6669 0.6058 0.5447 0.4836 0.4225 0.73746 0.68858 0.6397 0.59082 0.54194 0.49306 0.74692 0.71026 0.6736 0.63694 0.60028 0.56362 0.75638 0.73194 0.7075 0.68306 0.65862 0.63418 0.76584 0.75362 0.7414 0.72918 0.71696 0.70474 0.7753 0.7753 0.7753 0.7753 0.7753 0.7753 1.012 0.9552 0.8984 0.8416 0.7848 0.728 0.96466 0.91922 0.87378 0.82834 0.7829 0.73746 0.91732 0.88324 0.84916 0.81508 0.781 0.74692 0.86998 0.84726 0.82454 0.80182 0.7791 0.75638 0.82264 0.81128 0.79992 0.78856 0.7772 0.76584 0.7753 0.7753 0.7753 0.7753 0.7753 0.7753 0.7373 0.78202 0.82674 0.87146 0.91618 0.9609 0.7449 0.780676 0.816452 0.852228 0.888004 0.92378 0.7525 0.779332 0.806164 0.832996 0.859828 0.88666 0.7601 0.777988 0.795876 0.813764 0.831652 0.84954 0.7677 0.776644 0.785588 0.794532 0.803476 0.81242 0.7753 0.7753 0.7753 0.7753 0.7753 0.7753 1.012 0.96466 0.91732 0.86998 0.82264 0.7753 1.0324 0.994528 0.956656 0.918784 0.880912 0.84304 1.0528 1.0244 0.995992 0.967588 0.939184 0.91078 1.0732 1.05426 1.03533 1.01639 0.997456 0.97852 1.0936 1.08413 1.07466 1.0652 1.05573 1.04626 1.114 1.114 1.114 1.114 1.114 1.114 1.114 1.04626 0.97852 0.91078 0.84304 0.7753 1.08338 1.02919 0.974996 0.920804 0.866612 0.81242 1.05276 1.01212 0.971472 0.930828 0.890184 0.84954 1.02214 0.995044 0.967948 0.940852 0.913756 0.88666 0.99152 0.977972 0.964424 0.950876 0.937328 0.92378 0.9609 0.9609 0.9609 0.9609 0.9609 0.9609 -0.5 -0.5 -0.5 -0.5 -0.5 -0.5 -0.4186 -0.4186 -0.4186 -0.4186 -0.4186 -0.4186 -0.3372 -0.3372 -0.3372 -0.3372 -0.3372 -0.3372 -0.2558 -0.2558 -0.2558 -0.2558 -0.2558 -0.2558 -0.1744 -0.1744 -0.1744 -0.1744 -0.1744 -0.1744 -0.093 -0.093 -0.093 -0.093 -0.093 -0.093 -0.5 -0.4186 -0.3372 -0.2558 -0.1744 -0.093 -0.43466 -0.36954 -0.30442 -0.2393 -0.17418 -0.10906 -0.36932 -0.32048 -0.27164 -0.2228 -0.17396 -0.12512 -0.30398 -0.27142 -0.23886 -0.2063 -0.17374 -0.14118 -0.23864 -0.22236 -0.20608 -0.1898 -0.17352 -0.15724 -0.1733 -0.1733 -0.1733 -0.1733 -0.1733 -0.1733 0.8489 0.82582 0.80274 0.77966 0.75658 0.7335 0.84782 0.829356 0.810892 0.792428 0.773964 0.7555 0.84674 0.832892 0.819044 0.805196 0.791348 0.7775 0.84566 0.836428 0.827196 0.817964 0.808732 0.7995 0.84458 0.839964 0.835348 0.830732 0.826116 0.8215 0.8435 0.8435 0.8435 0.8435 0.8435 0.8435 0.2973 0.28034 0.26338 0.24642 0.22946 0.2125 0.27452 0.260952 0.247384 0.233816 0.220248 0.20668 0.25174 0.241564 0.231388 0.221212 0.211036 0.20086 0.22896 0.222176 0.215392 0.208608 0.201824 0.19504 0.20618 0.202788 0.199396 0.196004 0.192612 0.18922 0.1834 0.1834 0.1834 0.1834 0.1834 0.1834 0.0507 0.074 0.0973 0.1206 0.1439 0.1672 0.07724 0.09588 0.11452 0.13316 0.1518 0.17044 0.10378 0.11776 0.13174 0.14572 0.1597 0.17368 0.13032 0.13964 0.14896 0.15828 0.1676 0.17692 0.15686 0.16152 0.16618 0.17084 0.1755 0.18016 0.1834 0.1834 0.1834 0.1834 0.1834 0.1834 0.1834 0.18922 0.19504 0.20086 0.20668 0.2125 0.15686 0.161516 0.166172 0.170828 0.175484 0.18014 0.13032 0.133812 0.137304 0.140796 0.144288 0.14778 0.10378 0.106108 0.108436 0.110764 0.113092 0.11542 0.07724 0.078404 0.079568 0.080732 0.081896 0.08306 0.0507 0.0507 0.0507 0.0507 0.0507 0.0507 0.1834 0.18016 0.17692 0.17368 0.17044 0.1672 0.20618 0.203588 0.200996 0.198404 0.195812 0.19322 0.22896 0.227016 0.225072 0.223128 0.221184 0.21924 0.25174 0.250444 0.249148 0.247852 0.246556 0.24526 0.27452 0.273872 0.273224 0.272576 0.271928 0.27128 0.2973 0.2973 0.2973 0.2973 0.2973 0.2973 0.05953 0.098544 0.137558 0.176572 0.215586 0.2546 0.0676 0.0988112 0.130022 0.161234 0.192445 0.223656 0.07567 0.0990784 0.122487 0.145895 0.169304 0.192712 0.08374 0.0993456 0.114951 0.130557 0.146162 0.161768 0.09181 0.0996128 0.107416 0.115218 0.123021 0.130824 0.09988 0.09988 0.09988 0.09988 0.09988 0.09988 0.16 0.1032 0.0464 -0.0104 -0.0672 -0.124 0.147976 0.102536 0.057096 0.011656 -0.033784 -0.079224 0.135952 0.101872 0.067792 0.033712 -0.000368 -0.034448 0.123928 0.101208 0.078488 0.055768 0.033048 0.010328 0.111904 0.100544 0.089184 0.077824 0.066464 0.055104 0.09988 0.09988 0.09988 0.09988 0.09988 0.09988 0.3153 0.33768 0.36006 0.38244 0.40482 0.4272 0.33442 0.352324 0.370228 0.388132 0.406036 0.42394 0.35354 0.366968 0.380396 0.393824 0.407252 0.42068 0.37266 0.381612 0.390564 0.399516 0.408468 0.41742 0.39178 0.396256 0.400732 0.405208 0.409684 0.41416 0.4109 0.4109 0.4109 0.4109 0.4109 0.4109 1.375 1.3428 1.3106 1.2784 1.2462 1.214 1.385 1.35924 1.33348 1.30772 1.28196 1.2562 1.395 1.37568 1.35636 1.33704 1.31772 1.2984 1.405 1.39212 1.37924 1.36636 1.35348 1.3406 1.415 1.40856 1.40212 1.39568 1.38924 1.3828 1.425 1.425 1.425 1.425 1.425 1.425 1.864 1.8072 1.7504 1.6936 1.6368 1.58 1.8342 1.78876 1.74332 1.69788 1.65244 1.607 1.8044 1.77032 1.73624 1.70216 1.66808 1.634 1.7746 1.75188 1.72916 1.70644 1.68372 1.661 1.7448 1.73344 1.72208 1.71072 1.69936 1.688 1.715 1.715 1.715 1.715 1.715 1.715 1.715 1.7718 1.8286 1.8854 1.9422 1.999 1.7448 1.79024 1.83568 1.88112 1.92656 1.972 1.7746 1.80868 1.84276 1.87684 1.91092 1.945 1.8044 1.82712 1.84984 1.87256 1.89528 1.918 1.8342 1.84556 1.85692 1.86828 1.87964 1.891 1.864 1.864 1.864 1.864 1.864 1.864 2.009 2.007 2.005 2.003 2.001 1.999 1.942 1.9404 1.9388 1.9372 1.9356 1.934 1.875 1.8738 1.8726 1.8714 1.8702 1.869 1.808 1.8072 1.8064 1.8056 1.8048 1.804 1.741 1.7406 1.7402 1.7398 1.7394 1.739 1.674 1.674 1.674 1.674 1.674 1.674 0.9867 0.953 0.9193 0.8856 0.8519 0.8182 1.00756 0.9806 0.95364 0.92668 0.89972 0.87276 1.02842 1.0082 0.98798 0.96776 0.94754 0.92732 1.04928 1.0358 1.02232 1.00884 0.99536 0.98188 1.07014 1.0634 1.05666 1.04992 1.04318 1.03644 1.091 1.091 1.091 1.091 1.091 1.091 0.9867 1.02656 1.06642 1.10628 1.14614 1.186 0.95964 0.991528 1.02342 1.0553 1.08719 1.11908 0.93258 0.956496 0.980412 1.00433 1.02824 1.05216 0.90552 0.921464 0.937408 0.953352 0.969296 0.98524 0.87846 0.886432 0.894404 0.902376 0.910348 0.91832 0.8514 0.8514 0.8514 0.8514 0.8514 0.8514 0.8514 0.84476 0.83812 0.83148 0.82484 0.8182 0.87846 0.873148 0.867836 0.862524 0.857212 0.8519 0.90552 0.901536 0.897552 0.893568 0.889584 0.8856 0.93258 0.929924 0.927268 0.924612 0.921956 0.9193 0.95964 0.958312 0.956984 0.955656 0.954328 0.953 0.9867 0.9867 0.9867 0.9867 0.9867 0.9867 1.091 1.11 1.129 1.148 1.167 1.186 1.07014 1.08534 1.10054 1.11574 1.13094 1.14614 1.04928 1.06068 1.07208 1.08348 1.09488 1.10628 1.02842 1.03602 1.04362 1.05122 1.05882 1.06642 1.00756 1.01136 1.01516 1.01896 1.02276 1.02656 0.9867 0.9867 0.9867 0.9867 0.9867 0.9867 1.435 1.464 1.493 1.522 1.551 1.58 1.4072 1.4304 1.4536 1.4768 1.5 1.5232 1.3794 1.3968 1.4142 1.4316 1.449 1.4664 1.3516 1.3632 1.3748 1.3864 1.398 1.4096 1.3238 1.3296 1.3354 1.3412 1.347 1.3528 1.296 1.296 1.296 1.296 1.296 1.296 1.114 1.08338 1.05276 1.02214 0.99152 0.9609 1.1324 1.1079 1.08341 1.05891 1.03442 1.00992 1.1508 1.13243 1.11406 1.09568 1.07731 1.05894 1.1692 1.15695 1.1447 1.13246 1.12021 1.10796 1.1876 1.18148 1.17535 1.16923 1.1631 1.15698 1.206 1.206 1.206 1.206 1.206 1.206 1.256 1.2476 1.2392 1.2308 1.2224 1.214 1.2798 1.27308 1.26636 1.25964 1.25292 1.2462 