Variables = x, y, u, v, p

Zone, N=39592, E=29088, F=FEBlock, ET=QUADRILATERAL
0.353553 0.337795 0.321394 0.304381 0.286788 0.26865 0.25 0.365339 0.348755 0.331635 0.314006 0.295894 0.277327 0.258333 0.377124 0.359715 0.341877 0.323631 0.304999 0.286003 0.266667 0.388909 0.370674 0.352118 0.333256 0.314105 0.29468 0.275 0.400694 0.381634 0.36236 0.342882 0.32321 0.303357 0.283333 0.412479 0.392594 0.372601 0.352507 0.332316 0.312034 0.291667 0.424264 0.403553 0.382843 0.362132 0.341421 0.320711 0.3 0.424264 0.403553 0.382843 0.362132 0.341421 0.320711 0.3 0.441942 0.420743 0.399384 0.377872 0.356215 0.334421 0.3125 0.459619 0.437933 0.415925 0.393612 0.371008 0.348132 0.325 0.477297 0.455123 0.432467 0.409352 0.385802 0.361843 0.3375 0.494975 0.472313 0.449008 0.425091 0.400595 0.375553 0.35 0.512652 0.489503 0.465549 0.440831 0.415389 0.389264 0.3625 0.53033 0.506693 0.482091 0.456571 0.430182 0.402975 0.375 0.25 0.230874 0.211309 0.191342 0.17101 0.150353 0.12941 0.258333 0.238376 0.218052 0.197392 0.17643 0.155196 0.133723 0.266667 0.245877 0.224794 0.203443 0.181849 0.160038 0.138037 0.275 0.253378 0.231536 0.209494 0.187269 0.164881 0.14235 0.283333 0.260879 0.238279 0.215544 0.192688 0.169724 0.146664 0.291667 0.268381 0.245021 0.221595 0.198108 0.174567 0.150978 0.3 0.275882 0.251764 0.227646 0.203528 0.17941 0.155291 0.3 0.275882 0.251764 0.227646 0.203528 0.17941 0.155291 0.3125 0.28762 0.26263 0.23754 0.212359 0.187096 0.161762 0.325 0.299358 0.273497 0.247435 0.22119 0.194783 0.168232 0.3375 0.311097 0.284364 0.257329 0.230021 0.202469 0.174703 0.35 0.322835 0.29523 0.267224 0.238853 0.210156 0.181173 0.3625 0.334573 0.306097 0.277118 0.247684 0.217843 0.187644 0.375 0.346311 0.316964 0.287013 0.256515 0.225529 0.194114 0.12941 0.10822 0.0868241 0.0652631 0.0435779 0.0218097 8.65918e-13 0.133723 0.111751 0.089608 0.0673269 0.0449422 0.0224884 9.06825e-13 0.138037 0.115283 0.0923919 0.0693906 0.0463065 0.0231671 9.47732e-13 0.14235 0.118815 0.0951759 0.0714544 0.0476708 0.0238458 9.88638e-13 0.146664 0.122346 0.0979598 0.0735182 0.0490352 0.0245245 1.02954e-12 0.150978 0.125878 0.100744 0.0755819 0.0503995 0.0252032 1.07045e-12 0.155291 0.12941 0.103528 0.0776457 0.0517638 0.0258819 1.11136e-12 0.155291 0.12941 0.103528 0.0776457 0.0517638 0.0258819 1.11136e-12 0.161762 0.134896 0.107979 0.0810205 0.054031 0.0270207 1.17271e-12 0.168232 0.140383 0.11243 0.0843954 0.0562981 0.0281594 1.23407e-12 0.174703 0.14587 0.116882 0.0877702 0.0585653 0.0292982 1.29542e-12 0.181173 0.151356 0.121333 0.091145 0.0608325 0.030437 1.35677e-12 0.187644 0.156843 0.125785 0.0945198 0.0630996 0.0315758 1.41813e-12 0.194114 0.16233 0.130236 0.0978946 0.0653668 0.0327145 1.47948e-12 8.65918e-13 -0.0218097 -0.0435779 -0.0652631 -0.0868241 -0.10822 -0.12941 9.06825e-13 -0.0224884 -0.0449422 -0.0673269 -0.089608 -0.111751 -0.133723 9.47732e-13 -0.0231671 -0.0463065 -0.0693906 -0.0923919 -0.115283 -0.138037 9.88638e-13 -0.0238458 -0.0476708 -0.0714544 -0.0951759 -0.118815 -0.14235 1.02954e-12 -0.0245245 -0.0490352 -0.0735182 -0.0979598 -0.122346 -0.146664 1.07045e-12 -0.0252032 -0.0503995 -0.0755819 -0.100744 -0.125878 -0.150978 1.11136e-12 -0.0258819 -0.0517638 -0.0776457 -0.103528 -0.12941 -0.155291 1.11136e-12 -0.0258819 -0.0517638 -0.0776457 -0.103528 -0.12941 -0.155291 1.17271e-12 -0.0270207 -0.054031 -0.0810205 -0.107979 -0.134896 -0.161762 1.23407e-12 -0.0281594 -0.0562981 -0.0843954 -0.11243 -0.140383 -0.168232 1.29542e-12 -0.0292982 -0.0585653 -0.0877702 -0.116882 -0.14587 -0.174703 1.35677e-12 -0.030437 -0.0608325 -0.091145 -0.121333 -0.151356 -0.181173 1.41813e-12 -0.0315758 -0.0630996 -0.0945198 -0.125785 -0.156843 -0.187644 1.47948e-12 -0.0327145 -0.0653668 -0.0978946 -0.130236 -0.16233 -0.194114 -0.12941 -0.150353 -0.17101 -0.191342 -0.211309 -0.230874 -0.25 -0.133723 -0.155196 -0.17643 -0.197392 -0.218052 -0.238376 -0.258333 -0.138037 -0.160038 -0.181849 -0.203443 -0.224794 -0.245877 -0.266667 -0.14235 -0.164881 -0.187269 -0.209494 -0.231536 -0.253378 -0.275 -0.146664 -0.169724 -0.192688 -0.215544 -0.238279 -0.260879 -0.283333 -0.150978 -0.174567 -0.198108 -0.221595 -0.245021 -0.268381 -0.291667 -0.155291 -0.17941 -0.203528 -0.227646 -0.251764 -0.275882 -0.3 -0.155291 -0.17941 -0.203528 -0.227646 -0.251764 -0.275882 -0.3 -0.161762 -0.187096 -0.212359 -0.23754 -0.26263 -0.28762 -0.3125 -0.168232 -0.194783 -0.22119 -0.247435 -0.273497 -0.299358 -0.325 -0.174703 -0.202469 -0.230021 -0.257329 -0.284364 -0.311097 -0.3375 -0.181173 -0.210156 -0.238853 -0.267224 -0.29523 -0.322835 -0.35 -0.187644 -0.217843 -0.247684 -0.277118 -0.306097 -0.334573 -0.3625 -0.194114 -0.225529 -0.256515 -0.287013 -0.316964 -0.346311 -0.375 -0.25 -0.26865 -0.286788 -0.304381 -0.321394 -0.337795 -0.353553 -0.258333 -0.277327 -0.295894 -0.314006 -0.331635 -0.348755 -0.365339 -0.266667 -0.286003 -0.304999 -0.323631 -0.341877 -0.359715 -0.377124 -0.275 -0.29468 -0.314105 -0.333256 -0.352118 -0.370674 -0.388909 -0.283333 -0.303357 -0.32321 -0.342882 -0.36236 -0.381634 -0.400694 -0.291667 -0.312034 -0.332316 -0.352507 -0.372601 -0.392594 -0.412479 -0.3 -0.320711 -0.341421 -0.362132 -0.382843 -0.403553 -0.424264 -0.3 -0.320711 -0.341421 -0.362132 -0.382843 -0.403553 -0.424264 -0.3125 -0.334421 -0.356215 -0.377872 -0.399384 -0.420743 -0.441942 -0.325 -0.348132 -0.371008 -0.393612 -0.415925 -0.437933 -0.459619 -0.3375 -0.361843 -0.385802 -0.409352 -0.432467 -0.455123 -0.477297 -0.35 -0.375553 -0.400595 -0.425091 -0.449008 -0.472313 -0.494975 -0.3625 -0.389264 -0.415389 -0.440831 -0.465549 -0.489503 -0.512652 -0.375 -0.402975 -0.430182 -0.456571 -0.482091 -0.506693 -0.53033 -0.353553 -0.368639 -0.383022 -0.396677 -0.409576 -0.421696 -0.433013 -0.365339 -0.380558 -0.395193 -0.409221 -0.422619 -0.435367 -0.447446 -0.377124 -0.392478 -0.407364 -0.421764 -0.435661 -0.449038 -0.46188 -0.388909 -0.404397 -0.419535 -0.434308 -0.448704 -0.46271 -0.476314 -0.400694 -0.416317 -0.431706 -0.446852 -0.461746 -0.476381 -0.490748 -0.412479 -0.428236 -0.443877 -0.459396 -0.474789 -0.490052 -0.505181 -0.424264 -0.440156 -0.456048 -0.47194 -0.487832 -0.503723 -0.519615 -0.424264 -0.440156 -0.456048 -0.47194 -0.487832 -0.503723 -0.519615 -0.441942 -0.458956 -0.475795 -0.492452 -0.50892 -0.525193 -0.541266 -0.459619 -0.477757 -0.495543 -0.512965 -0.530009 -0.546663 -0.562917 -0.477297 -0.496557 -0.515291 -0.533477 -0.551098 -0.568133 -0.584567 -0.494975 -0.515357 -0.535038 -0.55399 -0.572187 -0.589604 -0.606218 -0.512652 -0.534158 -0.554786 -0.574502 -0.593275 -0.611074 -0.627868 -0.53033 -0.552958 -0.574533 -0.595015 -0.614364 -0.632544 -0.649519 -0.433013 -0.443505 -0.453154 -0.46194 -0.469846 -0.476858 -0.482963 -0.447446 -0.457855 -0.467561 -0.476547 -0.484801 -0.49231 -0.499062 -0.46188 -0.472205 -0.481968 -0.491155 -0.499756 -0.507761 -0.51516 -0.476314 -0.486555 -0.496375 -0.505763 -0.514711 -0.523212 -0.531259 -0.490748 -0.500905 -0.510782 -0.52037 -0.529666 -0.538663 -0.547358 -0.505181 -0.515255 -0.525188 -0.534978 -0.544621 -0.554114 -0.563457 -0.519615 -0.529605 -0.539595 -0.549585 -0.559575 -0.569565 -0.579555 -0.519615 -0.529605 -0.539595 -0.549585 -0.559575 -0.569565 -0.579555 -0.541266 -0.552214 -0.562951 -0.573473 -0.583774 -0.593852 -0.603704 -0.562917 -0.574823 -0.586307 -0.59736 -0.607973 -0.61814 -0.627852 -0.584567 -0.597432 -0.609663 -0.621248 -0.632172 -0.642427 -0.652 -0.606218 -0.620041 -0.633019 -0.645135 -0.656371 -0.666714 -0.676148 -0.627868 -0.642649 -0.656375 -0.669022 -0.68057 -0.691001 -0.700296 -0.649519 -0.665258 -0.679731 -0.69291 -0.704769 -0.715288 -0.724444 -0.482963 -0.488148 -0.492404 -0.495722 -0.498097 -0.499524 -0.5 -0.499062 -0.50395 -0.508065 -0.511398 -0.513945 -0.515702 -0.516667 -0.51516 -0.519753 -0.523726 -0.527074 -0.529793 -0.53188 -0.533333 -0.531259 -0.535555 -0.539387 -0.54275 -0.545641 -0.548058 -0.55 -0.547358 -0.551358 -0.555048 -0.558426 -0.561489 -0.564236 -0.566667 -0.563457 -0.56716 -0.570709 -0.574102 -0.577337 -0.580415 -0.583333 -0.579555 -0.582963 -0.58637 -0.589778 -0.593185 -0.596593 -0.6 -0.579555 -0.582963 -0.58637 -0.589778 -0.593185 -0.596593 -0.6 -0.603704 -0.607839 -0.611743 -0.615412 -0.618845 -0.622042 -0.625 -0.627852 -0.632716 -0.637115 -0.641046 -0.644505 -0.64749 -0.65 -0.652 -0.657592 -0.662488 -0.666681 -0.670166 -0.672939 -0.675 -0.676148 -0.682469 -0.687861 -0.692315 -0.695826 -0.698388 -0.7 -0.700296 -0.707345 -0.713233 -0.717949 -0.721486 -0.723837 -0.725 -0.724444 -0.732222 -0.738606 -0.743584 -0.747146 -0.749286 -0.75 -0.5 -0.499524 -0.498097 -0.495722 -0.492404 -0.488148 -0.482963 -0.516667 -0.515702 -0.513945 -0.511398 -0.508065 -0.50395 -0.499062 -0.533333 -0.53188 -0.529793 -0.527074 -0.523726 -0.519753 -0.51516 -0.55 -0.548058 -0.545641 -0.54275 -0.539387 -0.535555 -0.531259 -0.566667 -0.564236 -0.561489 -0.558426 -0.555048 -0.551358 -0.547358 -0.583333 -0.580415 -0.577337 -0.574102 -0.570709 -0.56716 -0.563457 -0.6 -0.596593 -0.593185 -0.589778 -0.58637 -0.582963 -0.579555 -0.6 -0.596593 -0.593185 -0.589778 -0.58637 -0.582963 -0.579555 -0.625 -0.622042 -0.618845 -0.615412 -0.611743 -0.607839 -0.603704 -0.65 -0.64749 -0.644505 -0.641046 -0.637115 -0.632716 -0.627852 -0.675 -0.672939 -0.670166 -0.666681 -0.662488 -0.657592 -0.652 -0.7 -0.698388 -0.695826 -0.692315 -0.687861 -0.682469 -0.676148 -0.725 -0.723837 -0.721486 -0.717949 -0.713233 -0.707345 -0.700296 -0.75 -0.749286 -0.747146 -0.743584 -0.738606 -0.732222 -0.724444 -0.482963 -0.476858 -0.469846 -0.46194 -0.453154 -0.443505 -0.433013 -0.499062 -0.49231 -0.484801 -0.476547 -0.467561 -0.457855 -0.447446 -0.51516 -0.507761 -0.499756 -0.491155 -0.481968 -0.472205 
-0.46188 -0.531259 -0.523212 -0.514711 -0.505763 -0.496375 -0.486555 -0.476314 -0.547358 -0.538663 -0.529666 -0.52037 -0.510782 -0.500905 -0.490748 -0.563457 -0.554114 -0.544621 -0.534978 -0.525188 -0.515255 -0.505181 -0.579555 -0.569565 -0.559575 -0.549585 -0.539595 -0.529605 -0.519615 -0.579555 -0.569565 -0.559575 -0.549585 -0.539595 -0.529605 -0.519615 -0.603704 -0.593852 -0.583774 -0.573473 -0.562951 -0.552214 -0.541266 -0.627852 -0.61814 -0.607973 -0.59736 -0.586307 -0.574823 -0.562917 -0.652 -0.642427 -0.632172 -0.621248 -0.609663 -0.597432 -0.584567 -0.676148 -0.666714 -0.656371 -0.645135 -0.633019 -0.620041 -0.606218 -0.700296 -0.691001 -0.68057 -0.669022 -0.656375 -0.642649 -0.627868 -0.724444 -0.715288 -0.704769 -0.69291 -0.679731 -0.665258 -0.649519 -0.433013 -0.421696 -0.409576 -0.396677 -0.383022 -0.368639 -0.353553 -0.447446 -0.435367 -0.422619 -0.409221 -0.395193 -0.380558 -0.365339 -0.46188 -0.449038 -0.435661 -0.421764 -0.407364 -0.392478 -0.377124 -0.476314 -0.46271 -0.448704 -0.434308 -0.419535 -0.404397 -0.388909 -0.490748 -0.476381 -0.461746 -0.446852 -0.431706 -0.416317 -0.400694 -0.505181 -0.490052 -0.474789 -0.459396 -0.443877 -0.428236 -0.412479 -0.519615 -0.503723 -0.487832 -0.47194 -0.456048 -0.440156 -0.424264 -0.519615 -0.503723 -0.487832 -0.47194 -0.456048 -0.440156 -0.424264 -0.541266 -0.525193 -0.50892 -0.492452 -0.475795 -0.458956 -0.441942 -0.562917 -0.546663 -0.530009 -0.512965 -0.495543 -0.477757 -0.459619 -0.584567 -0.568133 -0.551098 -0.533477 -0.515291 -0.496557 -0.477297 -0.606218 -0.589604 -0.572187 -0.55399 -0.535038 -0.515357 -0.494975 -0.627868 -0.611074 -0.593275 -0.574502 -0.554786 -0.534158 -0.512652 -0.649519 -0.632544 -0.614364 -0.595015 -0.574533 -0.552958 -0.53033 0.353553 0.368639 0.383022 0.396677 0.409576 0.421696 0.433013 0.365339 0.380558 0.395193 0.409221 0.422619 0.435367 0.447446 0.377124 0.392478 0.407364 0.421764 0.435661 0.449038 0.46188 0.388909 0.404397 0.419535 0.434308 0.448704 0.46271 0.476314 0.400694 0.416317 0.431706 0.446852 0.461746 0.476381 0.490748 0.412479 0.428236 0.443877 0.459396 0.474789 0.490052 0.505181 0.424264 0.440156 0.456048 0.47194 0.487832 0.503723 0.519615 0.433013 0.443505 0.453154 0.46194 0.469846 0.476858 0.482963 0.447446 0.457855 0.467561 0.476547 0.484801 0.49231 0.499062 0.46188 0.472205 0.481968 0.491155 0.499756 0.507761 0.51516 0.476314 0.486555 0.496375 0.505763 0.514711 0.523212 0.531259 0.490748 0.500905 0.510782 0.52037 0.529666 0.538663 0.547358 0.505181 0.515255 0.525188 0.534978 0.544621 0.554114 0.563457 0.519615 0.529605 0.539595 0.549585 0.559575 0.569565 0.579555 0.482963 0.488148 0.492404 0.495722 0.498097 0.499524 0.5 0.499062 0.50395 0.508065 0.511398 0.513945 0.515702 0.516667 0.51516 0.519753 0.523726 0.527074 0.529793 0.53188 0.533333 0.531259 0.535555 0.539387 0.54275 0.545641 0.548058 0.55 0.547358 0.551358 0.555048 0.558426 0.561489 0.564236 0.566667 0.563457 0.56716 0.570709 0.574102 0.577337 0.580415 0.583333 0.579555 0.582963 0.58637 0.589778 0.593185 0.596593 0.6 0.5 0.499524 0.498097 0.495722 0.492404 0.488148 0.482963 0.516667 0.515702 0.513945 0.511398 0.508065 0.50395 0.499062 0.533333 0.53188 0.529793 0.527074 0.523726 0.519753 0.51516 0.55 0.548058 0.545641 0.54275 0.539387 0.535555 0.531259 0.566667 0.564236 0.561489 0.558426 0.555048 0.551358 0.547358 0.583333 0.580415 0.577337 0.574102 0.570709 0.56716 0.563457 0.6 0.596593 0.593185 0.589778 0.58637 0.582963 0.579555 0.482963 0.476858 0.469846 0.46194 0.453154 0.443505 0.433013 0.499062 0.49231 0.484801 0.476547 0.467561 0.457855 0.447446 0.51516 0.507761 0.499756 0.491155 0.481968 0.472205 0.46188 0.531259 0.523212 0.514711 0.505763 0.496375 0.486555 0.476314 0.547358 0.538663 0.529666 0.52037 0.510782 0.500905 0.490748 0.563457 0.554114 0.544621 0.534978 0.525188 0.515255 0.505181 0.579555 0.569565 0.559575 0.549585 0.539595 0.529605 0.519615 0.433013 0.421696 0.409576 0.396677 0.383022 0.368639 0.353553 0.447446 0.435367 0.422619 0.409221 0.395193 0.380558 0.365339 0.46188 0.449038 0.435661 0.421764 0.407364 0.392478 0.377124 0.476314 0.46271 0.448704 0.434308 0.419535 0.404397 0.388909 0.490748 0.476381 0.461746 0.446852 0.431706 0.416317 0.400694 0.505181 0.490052 0.474789 0.459396 0.443877 0.428236 0.412479 0.519615 0.503723 0.487832 0.47194 0.456048 0.440156 0.424264 0.424264 0.440156 0.456048 0.47194 0.487832 0.503723 0.519615 0.441942 0.458956 0.475795 0.492452 0.50892 0.525193 0.541266 0.459619 0.477757 0.495543 0.512965 0.530009 0.546663 0.562917 0.477297 0.496557 0.515291 0.533477 0.551098 0.568133 0.584567 0.494975 0.515357 0.535038 0.55399 0.572187 0.589604 0.606218 0.512652 0.534158 0.554786 0.574502 0.593275 0.611074 0.627868 0.53033 0.552958 0.574533 0.595015 0.614364 0.632544 0.649519 0.519615 0.529605 0.539595 0.549585 0.559575 0.569565 0.579555 0.541266 0.552214 0.562951 0.573473 0.583774 0.593852 0.603704 0.562917 0.574823 0.586307 0.59736 0.607973 0.61814 0.627852 0.584567 0.597432 0.609663 0.621248 0.632172 0.642427 0.652 0.606218 0.620041 0.633019 0.645135 0.656371 0.666714 0.676148 0.627868 0.642649 0.656375 0.669022 0.68057 0.691001 0.700296 0.649519 0.665258 0.679731 0.69291 0.704769 0.715288 0.724444 0.579555 0.582963 0.58637 0.589778 0.593185 0.596593 0.6 0.603704 0.607839 0.611743 0.615412 0.618845 0.622042 0.625 0.627852 0.632716 0.637115 0.641046 0.644505 0.64749 0.65 0.652 0.657592 0.662488 0.666681 0.670166 0.672939 0.675 0.676148 0.682469 0.687861 0.692315 0.695826 0.698388 0.7 0.700296 0.707345 0.713233 0.717949 0.721486 0.723837 0.725 0.724444 0.732222 0.738606 0.743584 0.747146 0.749286 0.75 0.6 0.596593 0.593185 0.589778 0.58637 0.582963 0.579555 0.625 0.622042 0.618845 0.615412 0.611743 0.607839 0.603704 0.65 0.64749 0.644505 0.641046 0.637115 0.632716 0.627852 0.675 0.672939 0.670166 0.666681 0.662488 0.657592 0.652 0.7 0.698388 0.695826 0.692315 0.687861 0.682469 0.676148 0.725 0.723837 0.721486 0.717949 0.713233 0.707345 0.700296 0.75 0.749286 0.747146 0.743584 0.738606 0.732222 0.724444 0.579555 0.569565 0.559575 0.549585 0.539595 0.529605 0.519615 0.603704 0.593852 0.583774 0.573473 0.562951 0.552214 0.541266 0.627852 0.61814 0.607973 0.59736 0.586307 0.574823 0.562917 0.652 0.642427 0.632172 0.621248 0.609663 0.597432 0.584567 0.676148 0.666714 0.656371 0.645135 0.633019 0.620041 0.606218 0.700296 0.691001 0.68057 0.669022 0.656375 0.642649 0.627868 0.724444 0.715288 0.704769 0.69291 0.679731 0.665258 0.649519 0.519615 0.503723 0.487832 0.47194 0.456048 0.440156 0.424264 0.541266 0.525193 0.50892 0.492452 0.475795 0.458956 0.441942 0.562917 0.546663 0.530009 0.512965 0.495543 0.477757 0.459619 0.584567 0.568133 0.551098 0.533477 0.515291 0.496557 0.477297 0.606218 0.589604 0.572187 0.55399 0.535038 0.515357 0.494975 0.627868 0.611074 0.593275 0.574502 0.554786 0.534158 0.512652 0.649519 0.632544 0.614364 0.595015 0.574533 0.552958 0.53033 -0.53033 -0.512652 -0.494975 -0.477297 -0.459619 -0.441942 -0.424264 -0.506693 -0.489503 -0.472313 -0.455123 -0.437933 -0.420743 -0.403553 -0.482091 -0.465549 -0.449008 -0.432467 -0.415925 -0.399384 -0.382843 -0.456571 -0.440831 -0.425091 -0.409352 -0.393612 -0.377872 -0.362132 -0.430182 -0.415389 -0.400595 -0.385802 -0.371008 -0.356215 -0.341421 -0.402975 -0.389264 -0.375553 -0.361843 -0.348132 -0.334421 -0.320711 -0.375 -0.3625 -0.35 -0.3375 -0.325 -0.3125 -0.3 -0.424264 -0.412479 -0.400694 -0.388909 -0.377124 -0.365339 -0.353553 -0.403553 -0.392594 -0.381634 -0.370674 -0.359715 -0.348755 -0.337795 -0.382843 -0.372601 -0.36236 -0.352118 -0.341877 -0.331635 -0.321394 -0.362132 -0.352507 -0.342882 -0.333256 -0.323631 -0.314006 -0.304381 -0.341421 -0.332316 -0.32321 -0.314105 -0.304999 -0.295894 -0.286788 -0.320711 -0.312034 -0.303357 -0.29468 -0.286003 -0.277327 -0.26865 -0.3 -0.291667 -0.283333 -0.275 -0.266667 -0.258333 -0.25 -0.375 -0.3625 -0.35 -0.3375 -0.325 -0.3125 -0.3 -0.346311 -0.334573 -0.322835 -0.311097 -0.299358 -0.28762 -0.275882 -0.316964 -0.306097 -0.29523 -0.284364 -0.273497 -0.26263 -0.251764 -0.287013 -0.277118 -0.267224 -0.257329 -0.247435 -0.23754 -0.227646 -0.256515 -0.247684 -0.238853 -0.230021 -0.22119 -0.212359 -0.203528 -0.225529 -0.217843 -0.210156 -0.202469 -0.194783 -0.187096 -0.17941 -0.194114 -0.187644 -0.181173 -0.174703 -0.168232 -0.161762 -0.155291 -0.3 -0.291667 -0.283333 -0.275 -0.266667 -0.258333 -0.25 -0.275882 -0.268381 -0.260879 -0.253378 -0.245877 -0.238376 -0.230874 -0.251764 -0.245021 -0.238279 -0.231536 -0.224794 -0.218052 -0.211309 -0.227646 -0.221595 -0.215544 -0.209494 -0.203443 -0.197392 -0.191342 -0.203528 -0.198108 -0.192688 -0.187269 -0.181849 -0.17643 -0.17101 -0.17941 -0.174567 -0.169724 -0.164881 -0.160038 -0.155196 -0.150353 -0.155291 -0.150978 -0.146664 -0.14235 -0.138037 -0.133723 -0.12941 -0.194114 -0.187644 -0.181173 -0.174703 -0.168232 -0.161762 -0.155291 -0.16233 -0.156843 -0.151356 -0.14587 -0.140383 -0.134896 -0.12941 -0.130236 -0.125785 -0.121333 -0.116882 -0.11243 -0.107979 -0.103528 -0.0978946 -0.0945198 -0.091145 -0.0877702 -0.0843954 -0.0810205 -0.0776457 -0.0653668 -0.0630996 -0.0608325 -0.0585653 -0.0562981 -0.054031 -0.0517638 -0.0327145 -0.0315758 -0.030437 -0.0292982 -0.0281594 
-0.0270207 -0.0258819 -1.47948e-12 -1.41813e-12 -1.35678e-12 -1.29543e-12 -1.23409e-12 -1.17274e-12 -1.11139e-12 -0.155291 -0.150978 -0.146664 -0.14235 -0.138037 -0.133723 -0.12941 -0.12941 -0.125878 -0.122346 -0.118815 -0.115283 -0.111751 -0.10822 -0.103528 -0.100744 -0.0979598 -0.0951759 -0.0923919 -0.089608 -0.0868241 -0.0776457 -0.0755819 -0.0735182 -0.0714544 -0.0693906 -0.0673269 -0.0652631 -0.0517638 -0.0503995 -0.0490352 -0.0476708 -0.0463065 -0.0449422 -0.0435779 -0.0258819 -0.0252032 -0.0245245 -0.0238458 -0.0231671 -0.0224884 -0.0218097 -1.11139e-12 -1.07047e-12 -1.02956e-12 -9.88652e-13 -9.47741e-13 -9.0683e-13 -8.65918e-13 -1.47948e-12 -1.41813e-12 -1.35678e-12 -1.29543e-12 -1.23409e-12 -1.17274e-12 -1.11139e-12 0.0327145 0.0315758 0.030437 0.0292982 0.0281594 0.0270207 0.0258819 0.0653668 0.0630996 0.0608325 0.0585653 0.0562981 0.054031 0.0517638 0.0978946 0.0945198 0.091145 0.0877702 0.0843954 0.0810205 0.0776457 0.130236 0.125785 0.121333 0.116882 0.11243 0.107979 0.103528 0.16233 0.156843 0.151356 0.14587 0.140383 0.134896 0.12941 0.194114 0.187644 0.181173 0.174703 0.168232 0.161762 0.155291 -1.11139e-12 -1.07047e-12 -1.02956e-12 -9.88652e-13 -9.47741e-13 -9.0683e-13 -8.65918e-13 0.0258819 0.0252032 0.0245245 0.0238458 0.0231671 0.0224884 0.0218097 0.0517638 0.0503995 0.0490352 0.0476708 0.0463065 0.0449422 0.0435779 0.0776457 0.0755819 0.0735182 0.0714544 0.0693906 0.0673269 0.0652631 0.103528 0.100744 0.0979598 0.0951759 0.0923919 0.089608 0.0868241 0.12941 0.125878 0.122346 0.118815 0.115283 0.111751 0.10822 0.155291 0.150978 0.146664 0.14235 0.138037 0.133723 0.12941 0.194114 0.187644 0.181173 0.174703 0.168232 0.161762 0.155291 0.225529 0.217843 0.210156 0.202469 0.194783 0.187096 0.17941 0.256515 0.247684 0.238853 0.230021 0.22119 0.212359 0.203528 0.287013 0.277118 0.267224 0.257329 0.247435 0.23754 0.227646 0.316964 0.306097 0.29523 0.284364 0.273497 0.26263 0.251764 0.346311 0.334573 0.322835 0.311097 0.299358 0.28762 0.275882 0.375 0.3625 0.35 0.3375 0.325 0.3125 0.3 0.155291 0.150978 0.146664 0.14235 0.138037 0.133723 0.12941 0.17941 0.174567 0.169724 0.164881 0.160038 0.155196 0.150353 0.203528 0.198108 0.192688 0.187269 0.181849 0.17643 0.17101 0.227646 0.221595 0.215544 0.209494 0.203443 0.197392 0.191342 0.251764 0.245021 0.238279 0.231536 0.224794 0.218052 0.211309 0.275882 0.268381 0.260879 0.253378 0.245877 0.238376 0.230874 0.3 0.291667 0.283333 0.275 0.266667 0.258333 0.25 0.375 0.3625 0.35 0.3375 0.325 0.3125 0.3 0.402975 0.389264 0.375553 0.361843 0.348132 0.334421 0.320711 0.430182 0.415389 0.400595 0.385802 0.371008 0.356215 0.341421 0.456571 0.440831 0.425091 0.409352 0.393612 0.377872 0.362132 0.482091 0.465549 0.449008 0.432467 0.415925 0.399384 0.382843 0.506693 0.489503 0.472313 0.455123 0.437933 0.420743 0.403553 0.53033 0.512652 0.494975 0.477297 0.459619 0.441942 0.424264 0.3 0.291667 0.283333 0.275 0.266667 0.258333 0.25 0.320711 0.312034 0.303357 0.29468 0.286003 0.277327 0.26865 0.341421 0.332316 0.32321 0.314105 0.304999 0.295894 0.286788 0.362132 0.352507 0.342882 0.333256 0.323631 0.314006 0.304381 0.382843 0.372601 0.36236 0.352118 0.341877 0.331635 0.321394 0.403553 0.392594 0.381634 0.370674 0.359715 0.348755 0.337795 0.424264 0.412479 0.400694 0.388909 0.377124 0.365339 0.353553 -0.53033 -0.570801 -0.611272 -0.651743 -0.692214 -0.732684 -0.773155 -0.506693 -0.544376 -0.58206 -0.619744 -0.657427 -0.695111 -0.732795 -0.482091 -0.517148 -0.552205 -0.587262 -0.62232 -0.657377 -0.692434 -0.456571 -0.489155 -0.521738 -0.554322 -0.586906 -0.61949 -0.652073 -0.430182 -0.460437 -0.490692 -0.520948 -0.551203 -0.581458 -0.611713 -0.402975 -0.431038 -0.459101 -0.487163 -0.515226 -0.543289 -0.571352 -0.375 -0.400999 -0.426997 -0.452996 -0.478994 -0.504993 -0.530991 -0.375 -0.400999 -0.426997 -0.452996 -0.478994 -0.504993 -0.530991 -0.346311 -0.36985 -0.393388 -0.416927 -0.440465 -0.464003 -0.487542 -0.316964 -0.338152 -0.35934 -0.380528 -0.401716 -0.422904 -0.444092 -0.287013 -0.305951 -0.324889 -0.343827 -0.362766 -0.381704 -0.400642 -0.256515 -0.273295 -0.290074 -0.306854 -0.323633 -0.340413 -0.357192 -0.225529 -0.240232 -0.254934 -0.269636 -0.284338 -0.29904 -0.313743 -0.194114 -0.206811 -0.219507 -0.232204 -0.2449 -0.257596 -0.270293 -0.194114 -0.206811 -0.219507 -0.232204 -0.2449 -0.257596 -0.270293 -0.16233 -0.172815 -0.183301 -0.193787 -0.204273 -0.214758 -0.225244 -0.130236 -0.138563 -0.146889 -0.155216 -0.163542 -0.171869 -0.180195 -0.0978946 -0.104103 -0.110312 -0.116521 -0.122729 -0.128938 -0.135146 -0.0653668 -0.0694886 -0.0736104 -0.0777322 -0.081854 -0.0859758 -0.0900976 -0.0327145 -0.0347703 -0.036826 -0.0388817 -0.0409374 -0.0429931 -0.0450488 1.47948e-12 1.58959e-12 1.6997e-12 1.8098e-12 1.91991e-12 2.03002e-12 2.14012e-12 1.47948e-12 1.58959e-12 1.6997e-12 1.8098e-12 1.91991e-12 2.03002e-12 2.14012e-12 0.0327145 0.0347703 0.036826 0.0388817 0.0409374 0.0429931 0.0450488 0.0653668 0.0694886 0.0736104 0.0777322 0.081854 0.0859758 0.0900976 0.0978946 0.104103 0.110312 0.116521 0.122729 0.128938 0.135146 0.130236 0.138563 0.146889 0.155216 0.163542 0.171869 0.180195 0.16233 0.172815 0.183301 0.193787 0.204273 0.214758 0.225244 0.194114 0.206811 0.219507 0.232204 0.2449 0.257596 0.270293 0.194114 0.206811 0.219507 0.232204 0.2449 0.257596 0.270293 0.225529 0.240232 0.254934 0.269636 0.284338 0.29904 0.313743 0.256515 0.273295 0.290074 0.306854 0.323633 0.340413 0.357192 0.287013 0.305951 0.324889 0.343827 0.362766 0.381704 0.400642 0.316964 0.338152 0.35934 0.380528 0.401716 0.422904 0.444092 0.346311 0.36985 0.393388 0.416927 0.440465 0.464003 0.487542 0.375 0.400999 0.426997 0.452996 0.478994 0.504993 0.530991 0.375 0.400999 0.426997 0.452996 0.478994 0.504993 0.530991 0.402975 0.431038 0.459101 0.487163 0.515226 0.543289 0.571352 0.430182 0.460437 0.490692 0.520948 0.551203 0.581458 0.611713 0.456571 0.489155 0.521738 0.554322 0.586906 0.61949 0.652073 0.482091 0.517148 0.552205 0.587262 0.62232 0.657377 0.692434 0.506693 0.544376 0.58206 0.619744 0.657427 0.695111 0.732795 0.53033 0.570801 0.611272 0.651743 0.692214 0.732684 0.773155 -0.773155 -0.82172 -0.870285 -0.91885 -0.967415 -1.01598 -1.06455 -0.732795 -0.778465 -0.824136 -0.869806 -0.915477 -0.961147 -1.00682 -0.692434 -0.73521 -0.777986 -0.820762 -0.863538 -0.906315 -0.949091 -0.652073 -0.691955 -0.731837 -0.771718 -0.8116 -0.851482 -0.891363 -0.611713 -0.6487 -0.685687 -0.722674 -0.759662 -0.796649 -0.833636 -0.571352 -0.605445 -0.639538 -0.67363 -0.707723 -0.741816 -0.775909 -0.530991 -0.56219 -0.593388 -0.624586 -0.655785 -0.686983 -0.718181 -0.530991 -0.56219 -0.593388 -0.624586 -0.655785 -0.686983 -0.718181 -0.487542 -0.51608 -0.544617 -0.573155 -0.601693 -0.630231 -0.658769 -0.444092 -0.469969 -0.495847 -0.521724 -0.547602 -0.573479 -0.599357 -0.400642 -0.423859 -0.447076 -0.470293 -0.49351 -0.516727 -0.539944 -0.357192 -0.377749 -0.398306 -0.418862 -0.439419 -0.459975 -0.480532 -0.313743 -0.331639 -0.349535 -0.367431 -0.385327 -0.403223 -0.42112 -0.270293 -0.285529 -0.300764 -0.316 -0.331236 -0.346472 -0.361707 -0.270293 -0.285529 -0.300764 -0.316 -0.331236 -0.346472 -0.361707 -0.225244 -0.237941 -0.250637 -0.263333 -0.27603 -0.288726 -0.301423 -0.180195 -0.190352 -0.20051 -0.210667 -0.220824 -0.230981 -0.241138 -0.135146 -0.142764 -0.150382 -0.158 -0.165618 -0.173236 -0.180854 -0.0900976 -0.0951762 -0.100255 -0.105333 -0.110412 -0.115491 -0.120569 -0.0450488 -0.0475881 -0.0501274 -0.0526667 -0.055206 -0.0577453 -0.0602845 2.14012e-12 2.27221e-12 2.40431e-12 2.5364e-12 2.6685e-12 2.80059e-12 2.93268e-12 2.14012e-12 2.27221e-12 2.40431e-12 2.5364e-12 2.6685e-12 2.80059e-12 2.93268e-12 0.0450488 0.0475881 0.0501274 0.0526667 0.055206 0.0577453 0.0602845 0.0900976 0.0951762 0.100255 0.105333 0.110412 0.115491 0.120569 0.135146 0.142764 0.150382 0.158 0.165618 0.173236 0.180854 0.180195 0.190352 0.20051 0.210667 0.220824 0.230981 0.241138 0.225244 0.237941 0.250637 0.263333 0.27603 0.288726 0.301423 0.270293 0.285529 0.300764 0.316 0.331236 0.346472 0.361707 0.270293 0.285529 0.300764 0.316 0.331236 0.346472 0.361707 0.313743 0.331639 0.349535 0.367431 0.385327 0.403223 0.42112 0.357192 0.377749 0.398306 0.418862 0.439419 0.459975 0.480532 0.400642 0.423859 0.447076 0.470293 0.49351 0.516727 0.539944 0.444092 0.469969 0.495847 0.521724 0.547602 0.573479 0.599357 0.487542 0.51608 0.544617 0.573155 0.601693 0.630231 0.658769 0.530991 0.56219 0.593388 0.624586 0.655785 0.686983 0.718181 0.530991 0.56219 0.593388 0.624586 0.655785 0.686983 0.718181 0.571352 0.605445 0.639538 0.67363 0.707723 0.741816 0.775909 0.611713 0.6487 0.685687 0.722674 0.759662 0.796649 0.833636 0.652073 0.691955 0.731837 0.771718 0.8116 0.851482 0.891363 0.692434 0.73521 0.777986 0.820762 0.863538 0.906315 0.949091 0.732795 0.778465 0.824136 0.869806 0.915477 0.961147 1.00682 0.773155 0.82172 0.870285 0.91885 0.967415 1.01598 1.06455 -1.06455 -1.12282 -1.1811 -1.23938 -1.29766 -1.35594 -1.41421 -1.00682 -1.06162 -1.11643 -1.17123 -1.22604 -1.28084 -1.33565 -0.949091 -1.00042 -1.05175 -1.10308 -1.15442 -1.20575 -1.25708 -0.891363 -0.939221 -0.987079 -1.03494 -1.0828 -1.13065 -1.17851 -0.833636 -0.878021 -0.922405 -0.96679 -1.01117 -1.05556 -1.09994 -0.775909 -0.81682 -0.857731 -0.898643 -0.939554 -0.980465 -1.02138 -0.718181 -0.755619 -0.793057 -0.830495 -0.867933 -0.905371 -0.942809 -0.718181 -0.755619 -0.793057 -0.830495 -0.867933 -0.905371 -0.942809 -0.658769 -0.693014 -0.72726 -0.761505 